Program Version,EnergyPlus, Version 25.1.0-68a4a7c774, YMD=2026.05.07 14:54
1,5,Environment Title[],Latitude[deg],Longitude[deg],Time Zone[],Elevation[m]
2,8,Day of Simulation[],Month[],Day of Month[],DST Indicator[1=yes 0=no],Hour[],StartMinute[],EndMinute[],DayType
3,5,Cumulative Day of Simulation[],Month[],Day of Month[],DST Indicator[1=yes 0=no],DayType  ! When Daily Report Variables Requested
4,2,Cumulative Days of Simulation[],Month[]  ! When Monthly Report Variables Requested
5,1,Cumulative Days of Simulation[] ! When Run Period Report Variables Requested
6,1,Calendar Year of Simulation[] ! When Annual Report Variables Requested
7,1,Environment,Site Outdoor Air Drybulb Temperature [C] !TimeStep
8,1,Environment,Site Outdoor Air Dewpoint Temperature [C] !TimeStep
9,1,Environment,Site Outdoor Air Wetbulb Temperature [C] !TimeStep
10,1,Environment,Site Diffuse Solar Radiation Rate per Area [W/m2] !TimeStep
11,1,Environment,Site Direct Solar Radiation Rate per Area [W/m2] !TimeStep
12,1,Environment,Site Solar Azimuth Angle [deg] !TimeStep
13,1,Environment,Site Solar Altitude Angle [deg] !TimeStep
272,1,BLOCK TWO STOREY STOREY 0 IDEAL LOADS AIR SYSTEM,Zone Ideal Loads Supply Air Total Heating Energy [J] !Hourly
321,1,BLOCK TWO STOREY STOREY 0 IDEAL LOADS AIR SYSTEM,Zone Ideal Loads Supply Air Total Cooling Energy [J] !Hourly
370,1,BLOCK TWO STOREY STOREY 1 IDEAL LOADS AIR SYSTEM,Zone Ideal Loads Supply Air Total Heating Energy [J] !Hourly
371,1,BLOCK TWO STOREY STOREY 1 IDEAL LOADS AIR SYSTEM,Zone Ideal Loads Supply Air Total Cooling Energy [J] !Hourly
372,1,BLOCK ONE STOREY STOREY 0 IDEAL LOADS AIR SYSTEM,Zone Ideal Loads Supply Air Total Heating Energy [J] !Hourly
373,1,BLOCK ONE STOREY STOREY 0 IDEAL LOADS AIR SYSTEM,Zone Ideal Loads Supply Air Total Cooling Energy [J] !Hourly
End of Data Dictionary
1,DENVER_STAPLETON ANN HTG 99.6% CONDNS DB,  41.78, -87.75,  -6.00, 186.00
2,1,12,21, 0, 1, 0.00,15.00,WinterDesignDay
7,-20.0
8,-20.000009055076564
9,-20.00000241249107
10,0.0
11,0.0
12,18.816492305875993
13,-70.88758159286273
2,1,12,21, 0, 1,15.00,30.00,WinterDesignDay
7,-20.0
8,-20.000009055076564
9,-20.00000241249107
10,0.0
11,0.0
12,28.485169688194613
13,-69.7634723617895
2,1,12,21, 0, 1,30.00,45.00,WinterDesignDay
7,-20.0
8,-20.000009055076564
9,-20.00000241249107
10,0.0
11,0.0
12,37.11291889015977
13,-68.24641340110959
2,1,12,21, 0, 1,45.00,60.00,WinterDesignDay
7,-20.0
8,-20.000009055076564
9,-20.00000241249107
10,0.0
11,0.0
12,44.675023516763915
13,-66.4138631111535
2,1,12,21, 0, 1, 0.00,60.00,WinterDesignDay
272,15085999.180027887
321,0.0
370,23129181.99710428
371,0.0
372,13017603.970817601
373,0.0
2,1,12,21, 0, 2, 0.00,15.00,WinterDesignDay
7,-20.0
8,-20.000009055076564
9,-20.00000241249107
10,0.0
11,0.0
12,51.260156865162045
13,-64.33544513542611
2,1,12,21, 0, 2,15.00,30.00,WinterDesignDay
7,-20.0
8,-20.000009055076564
9,-20.00000241249107
10,0.0
11,0.0
12,57.00388606652877
13,-62.0684393944398
2,1,12,21, 0, 2,30.00,45.00,WinterDesignDay
7,-20.0
8,-20.000009055076564
9,-20.00000241249107
10,0.0
11,0.0
12,62.047566897566625
13,-59.65781008736389
2,1,12,21, 0, 2,45.00,60.00,WinterDesignDay
7,-20.0
8,-20.000009055076564
9,-20.00000241249107
10,0.0
11,0.0
12,66.51914430106187
13,-57.13811644600282
2,1,12,21, 0, 2, 0.00,60.00,WinterDesignDay
272,15085999.180042855
321,0.0
370,23129181.997108147
371,0.0
372,13017603.970837925
373,0.0
2,1,12,21, 0, 3, 0.00,15.00,WinterDesignDay
7,-20.0
8,-20.000009055076564
9,-20.00000241249107
10,0.0
11,0.0
12,70.52700955079217
13,-54.535788867683216
2,1,12,21, 0, 3,15.00,30.00,WinterDesignDay
7,-20.0
8,-20.000009055076564
9,-20.00000241249107
10,0.0
11,0.0
12,74.1601019119089
13,-51.87114587170884
2,1,12,21, 0, 3,30.00,45.00,WinterDesignDay
7,-20.0
8,-20.000009055076564
9,-20.00000241249107
10,0.0
11,0.0
12,77.49039541148116
13,-49.159991069450726
2,1,12,21, 0, 3,45.00,60.00,WinterDesignDay
7,-20.0
8,-20.000009055076564
9,-20.00000241249107
10,0.0
11,0.0
12,80.57592965856617
13,-46.41481516597889
2,1,12,21, 0, 3, 0.00,60.00,WinterDesignDay
272,15085999.180055322
321,0.0
370,23129181.997111388
371,0.0
372,13017603.970855143
373,0.0
2,1,12,21, 0, 4, 0.00,15.00,WinterDesignDay
7,-20.0
8,-20.000009055076564
9,-20.00000241249107
10,0.0
11,0.0
12,83.46363231994386
13,-43.64568104949347
2,1,12,21, 0, 4,15.00,30.00,WinterDesignDay
7,-20.0
8,-20.000009055076564
9,-20.00000241249107
10,0.0
11,0.0
12,86.19169531492052
13,-40.86087124689809
2,1,12,21, 0, 4,30.00,45.00,WinterDesignDay
7,-20.0
8,-20.000009055076564
9,-20.00000241249107
10,0.0
11,0.0
12,88.79148410586693
13,-38.06736268741018
2,1,12,21, 0, 4,45.00,60.00,WinterDesignDay
7,-20.0
8,-20.000009055076564
9,-20.00000241249107
10,0.0
11,0.0
12,91.28903773650627
13,-35.27117767675532
2,1,12,21, 0, 4, 0.00,60.00,WinterDesignDay
272,15085999.18006562
321,0.0
370,23129181.997114137
371,0.0
372,13017603.970869718
373,0.0
2,1,12,21, 0, 5, 0.00,15.00,WinterDesignDay
7,-20.0
8,-20.000009055076564
9,-20.00000241249107
10,0.0
11,0.0
12,93.70623568162047
13,-32.477646532422305
2,1,12,21, 0, 5,15.00,30.00,WinterDesignDay
7,-20.0
8,-20.000009055076564
9,-20.00000241249107
10,0.0
11,0.0
12,96.06170285323499
13,-29.691607153433644
2,1,12,21, 0, 5,30.00,45.00,WinterDesignDay
7,-20.0
8,-20.000009055076564
9,-20.00000241249107
10,0.0
11,0.0
12,98.37151226559958
13,-26.917559443230896
2,1,12,21, 0, 5,45.00,60.00,WinterDesignDay
7,-20.0
8,-20.000009055076564
9,-20.00000241249107
10,0.0
11,0.0
12,100.64973234520463
13,-24.159787296362193
2,1,12,21, 0, 5, 0.00,60.00,WinterDesignDay
272,15085999.180074297
321,0.0
370,23129181.99711638
371,0.0
372,13017603.970882025
373,0.0
2,1,12,21, 0, 6, 0.00,15.00,WinterDesignDay
7,-20.0
8,-20.000009055076564
9,-20.00000241249107
10,0.0
11,0.0
12,102.90885493275123
13,-21.422457196937117
2,1,12,21, 0, 6,15.00,30.00,WinterDesignDay
7,-20.0
8,-20.000009055076564
9,-20.00000241249107
10,0.0
11,0.0
12,105.16013116791719
13,-18.709699895775934
2,1,12,21, 0, 6,30.00,45.00,WinterDesignDay
7,-20.0
8,-20.000009055076564
9,-20.00000241249107
10,0.0
11,0.0
12,107.41383552544458
13,-16.025679797795444
2,1,12,21, 0, 6,45.00,60.00,WinterDesignDay
7,-20.0
8,-20.000009055076564
9,-20.00000241249107
10,0.0
11,0.0
12,109.67947293837499
13,-13.374655364099667
2,1,12,21, 0, 6, 0.00,60.00,WinterDesignDay
272,15085999.180081721
321,0.0
370,23129181.997118223
371,0.0
372,13017603.970892306
373,0.0
2,1,12,21, 0, 7, 0.00,15.00,WinterDesignDay
7,-20.0
8,-20.000009055076564
9,-20.00000241249107
10,0.0
11,0.0
12,111.96593984517473
13,-10.76103284814518
2,1,12,21, 0, 7,15.00,30.00,WinterDesignDay
7,-20.0
8,-20.000009055076564
9,-20.00000241249107
10,0.0
11,0.0
12,114.28164682731814
13,-8.18941492519922
2,1,12,21, 0, 7,30.00,45.00,WinterDesignDay
7,-20.0
8,-20.000009055076564
9,-20.00000241249107
10,0.0
11,0.0
12,116.634608023864
13,-5.664645155782075
2,1,12,21, 0, 7,45.00,60.00,WinterDesignDay
7,-20.0
8,-20.000009055076564
9,-20.00000241249107
10,0.0
11,0.0
12,119.03250054411346
13,-3.1918486866555082
2,1,12,21, 0, 7, 0.00,60.00,WinterDesignDay
272,15085999.180088025
321,0.0
370,23129181.99711975
371,0.0
372,13017603.97090094
373,0.0
2,1,12,21, 0, 8, 0.00,15.00,WinterDesignDay
7,-20.0
8,-20.000009055076564
9,-20.00000241249107
10,0.0
11,0.0
12,121.48269552923882
13,-0.7764690932614129
2,1,12,21, 0, 8,15.00,30.00,WinterDesignDay
7,-20.0
8,-20.000009055076564
9,-20.00000241249107
10,0.0
11,0.0
12,123.99226126958357
13,1.5756992261365128
2,1,12,21, 0, 8,30.00,45.00,WinterDesignDay
7,-20.0
8,-20.000009055076564
9,-20.00000241249107
10,0.0
11,0.0
12,126.56793784324186
13,3.858484202461863
2,1,12,21, 0, 8,45.00,60.00,WinterDesignDay
7,-20.0
8,-20.000009055076564
9,-20.00000241249107
10,0.0
11,0.0
12,129.2160821252638
13,6.065316423239033
2,1,12,21, 0, 8, 0.00,60.00,WinterDesignDay
272,15085999.180093328
321,0.0
370,23129181.99712109
371,0.0
372,13017603.970908113
373,0.0
2,1,12,21, 0, 9, 0.00,15.00,WinterDesignDay
7,-20.0
8,-20.000009055076564
9,-20.00000241249107
10,0.0
11,0.0
12,131.9425817906876
13,8.189218814102393
2,1,12,21, 0, 9,15.00,30.00,WinterDesignDay
7,-20.0
8,-20.000009055076564
9,-20.00000241249107
10,0.0
11,0.0
12,134.75273720435655
13,10.222808397177126
2,1,12,21, 0, 9,30.00,45.00,WinterDesignDay
7,-20.0
8,-20.000009055076564
9,-20.00000241249107
10,0.0
11,0.0
12,137.65111099346996
13,12.15831334127824
2,1,12,21, 0, 9,45.00,60.00,WinterDesignDay
7,-20.0
8,-20.000009055076564
9,-20.00000241249107
10,0.0
11,0.0
12,140.64134678417471
13,13.98760888457952
2,1,12,21, 0, 9, 0.00,60.00,WinterDesignDay
272,15085999.180097787
321,0.0
370,23129181.99712221
371,0.0
372,13017603.970914021
373,0.0
2,1,12,21, 0,10, 0.00,15.00,WinterDesignDay
7,-20.0
8,-20.000009055076564
9,-20.00000241249107
10,0.0
11,0.0
12,143.72596117602416
13,15.702275844551497
2,1,12,21, 0,10,15.00,30.00,WinterDesignDay
7,-20.0
8,-20.000009055076564
9,-20.00000241249107
10,0.0
11,0.0
12,146.90611657186975
13,17.29368519982935
2,1,12,21, 0,10,30.00,45.00,WinterDesignDay
7,-20.0
8,-20.000009055076564
9,-20.00000241249107
10,0.0
11,0.0
12,150.1813868630879
13,18.753111486261503
2,1,12,21, 0,10,45.00,60.00,WinterDesignDay
7,-20.0
8,-20.000009055076564
9,-20.00000241249107
10,0.0
11,0.0
12,153.549532837001
13,20.07187635729946
2,1,12,21, 0,10, 0.00,60.00,WinterDesignDay
272,15085999.180101596
321,0.0
370,23129181.997123186
371,0.0
372,13017603.970918925
373,0.0
2,1,12,21, 0,11, 0.00,15.00,WinterDesignDay
7,-20.0
8,-20.000009055076564
9,-20.00000241249107
10,0.0
11,0.0
12,157.00630886116224
13,21.241521531546844
2,1,12,21, 0,11,15.00,30.00,WinterDesignDay
7,-20.0
8,-20.000009055076564
9,-20.00000241249107
10,0.0
11,0.0
12,160.54532592312137
13,22.25400750762773
2,1,12,21, 0,11,30.00,45.00,WinterDesignDay
7,-20.0
8,-20.000009055076564
9,-20.00000241249107
10,0.0
11,0.0
12,164.15799725353074
13,23.101931049020347
2,1,12,21, 0,11,45.00,60.00,WinterDesignDay
7,-20.0
8,-20.000009055076564
9,-20.00000241249107
10,0.0
11,0.0
12,167.83359033532443
13,23.778750906116933
2,1,12,21, 0,11, 0.00,60.00,WinterDesignDay
272,15085999.1801049
321,0.0
370,23129181.997123994
371,0.0
372,13017603.970923029
373,0.0
2,1,12,21, 0,12, 0.00,15.00,WinterDesignDay
7,-20.0
8,-20.000009055076564
9,-20.00000241249107
10,0.0
11,0.0
12,171.5594022851376
13,24.27900811371895
2,1,12,21, 0,12,15.00,30.00,WinterDesignDay
7,-20.0
8,-20.000009055076564
9,-20.00000241249107
10,0.0
11,0.0
12,175.32106437389294
13,24.598525154008712
2,1,12,21, 0,12,30.00,45.00,WinterDesignDay
7,-20.0
8,-20.000009055076564
9,-20.00000241249107
10,0.0
11,0.0
12,179.10296694156094
13,24.734567944853715
2,1,12,21, 0,12,45.00,60.00,WinterDesignDay
7,-20.0
8,-20.000009055076564
9,-20.00000241249107
10,0.0
11,0.0
12,182.88878040656044
13,24.685956410670325
2,1,12,21, 0,12, 0.00,60.00,WinterDesignDay
272,15085999.18010773
321,0.0
370,23129181.997124657
371,0.0
372,13017603.97092648
373,0.0
2,1,12,21, 0,13, 0.00,15.00,WinterDesignDay
7,-20.0
8,-20.000009055076564
9,-20.00000241249107
10,0.0
11,0.0
12,186.66203446335516
13,24.45311332875356
2,1,12,21, 0,13,15.00,30.00,WinterDesignDay
7,-20.0
8,-20.000009055076564
9,-20.00000241249107
10,0.0
11,0.0
12,190.40670886022505
13,24.038046751402764
2,1,12,21, 0,13,30.00,45.00,WinterDesignDay
7,-20.0
8,-20.000009055076564
9,-20.00000241249107
10,0.0
11,0.0
12,194.10778737825058
13,23.444267705259538
2,1,12,21, 0,13,45.00,60.00,WinterDesignDay
7,-20.0
8,-20.000009055076564
9,-20.00000241249107
10,0.0
11,0.0
12,197.7517322156193
13,22.676650980850425
2,1,12,21, 0,13, 0.00,60.00,WinterDesignDay
272,15085999.180110183
321,0.0
370,23129181.99712523
371,0.0
372,13017603.970929436
373,0.0
2,1,12,21, 0,14, 0.00,15.00,WinterDesignDay
7,-20.0
8,-20.000009055076564
9,-20.00000241249107
10,0.0
11,0.0
12,201.3268475961291
13,21.741251639704476
2,1,12,21, 0,14,15.00,30.00,WinterDesignDay
7,-20.0
8,-20.000009055076564
9,-20.00000241249107
10,0.0
11,0.0
12,204.82351644451856
13,20.645092704396287
2,1,12,21, 0,14,30.00,45.00,WinterDesignDay
7,-20.0
8,-20.000009055076564
9,-20.00000241249107
10,0.0
11,0.0
12,208.2343093173072
13,19.3959401447064
2,1,12,21, 0,14,45.00,60.00,WinterDesignDay
7,-20.0
8,-20.000009055076564
9,-20.00000241249107
10,0.0
11,0.0
12,211.55397776929325
13,18.002079968753172
2,1,12,21, 0,14, 0.00,60.00,WinterDesignDay
272,15085999.180112278
321,0.0
370,23129181.997125674
371,0.0
372,13017603.970931787
373,0.0
2,1,12,21, 0,15, 0.00,15.00,WinterDesignDay
7,-20.0
8,-20.000009055076564
9,-20.00000241249107
10,0.0
11,0.0
12,214.77935330064372
13,16.472109525008467
2,1,12,21, 0,15,15.00,30.00,WinterDesignDay
7,-20.0
8,-20.000009055076564
9,-20.00000241249107
10,0.0
11,0.0
12,217.90917747301913
13,14.814751698470763
2,1,12,21, 0,15,30.00,45.00,WinterDesignDay
7,-20.0
8,-20.000009055076564
9,-20.00000241249107
10,0.0
11,0.0
12,220.943889191302
13,13.038697172586291
2,1,12,21, 0,15,45.00,60.00,WinterDesignDay
7,-20.0
8,-20.000009055076564
9,-20.00000241249107
10,0.0
11,0.0
12,223.88539259103112
13,11.152476798381194
2,1,12,21, 0,15, 0.00,60.00,WinterDesignDay
272,15085999.180114064
321,0.0
370,23129181.997126065
371,0.0
372,13017603.970933782
373,0.0
2,1,12,21, 0,16, 0.00,15.00,WinterDesignDay
7,-20.0
8,-20.000009055076564
9,-20.00000241249107
10,0.0
11,0.0
12,226.73682469486323
13,9.164363634912803
2,1,12,21, 0,16,15.00,30.00,WinterDesignDay
7,-20.0
8,-20.000009055076564
9,-20.00000241249107
10,0.0
11,0.0
12,229.50233711617528
13,7.082302490282186
2,1,12,21, 0,16,30.00,45.00,WinterDesignDay
7,-20.0
8,-20.000009055076564
9,-20.00000241249107
10,0.0
11,0.0
12,232.18690141406628
13,4.913863757344983
2,1,12,21, 0,16,45.00,60.00,WinterDesignDay
7,-20.0
8,-20.000009055076564
9,-20.00000241249107
10,0.0
11,0.0
12,234.79614373612452
13,2.6662178840091677
2,1,12,21, 0,16, 0.00,60.00,WinterDesignDay
272,15085999.180115633
321,0.0
370,23129181.99712643
371,0.0
372,13017603.970935509
373,0.0
2,1,12,21, 0,17, 0.00,15.00,WinterDesignDay
7,-20.0
8,-20.000009055076564
9,-20.00000241249107
10,0.0
11,0.0
12,237.33621134001925
13,0.34612679748195924
2,1,12,21, 0,17,15.00,30.00,WinterDesignDay
7,-20.0
8,-20.000009055076564
9,-20.00000241249107
10,0.0
11,0.0
12,239.813671482025
13,-2.0400511272198543
2,1,12,21, 0,17,30.00,45.00,WinterDesignDay
7,-20.0
8,-20.000009055076564
9,-20.00000241249107
10,0.0
11,0.0
12,242.23544190511245
13,-4.486345520774565
2,1,12,21, 0,17,45.00,60.00,WinterDesignDay
7,-20.0
8,-20.000009055076564
9,-20.00000241249107
10,0.0
11,0.0
12,244.60875160795342
13,-6.987150334445123
2,1,12,21, 0,17, 0.00,60.00,WinterDesignDay
272,15085999.18011692
321,0.0
370,23129181.99712675
371,0.0
372,13017603.970936894
373,0.0
2,1,12,21, 0,18, 0.00,15.00,WinterDesignDay
7,-20.0
8,-20.000009055076564
9,-20.00000241249107
10,0.0
11,0.0
12,246.94113058282375
13,-9.537193904609872
2,1,12,21, 0,18,15.00,30.00,WinterDesignDay
7,-20.0
8,-20.000009055076564
9,-20.00000241249107
10,0.0
11,0.0
12,249.2404276525661
13,-12.13150411358936
2,1,12,21, 0,18,30.00,45.00,WinterDesignDay
7,-20.0
8,-20.000009055076564
9,-20.00000241249107
10,0.0
11,0.0
12,251.51485632938676
13,-14.765369474598849
2,1,12,21, 0,18,45.00,60.00,WinterDesignDay
7,-20.0
8,-20.000009055076564
9,-20.00000241249107
10,0.0
11,0.0
12,253.77306971875623
13,-17.434296470032375
2,1,12,21, 0,18, 0.00,60.00,WinterDesignDay
272,15085999.180118032
321,0.0
370,23129181.997126967
371,0.0
372,13017603.970937941
373,0.0
2,1,12,21, 0,19, 0.00,15.00,WinterDesignDay
7,-20.0
8,-20.000009055076564
9,-20.00000241249107
10,0.0
11,0.0
12,256.02426690170086
13,-20.13396297871136
2,1,12,21, 0,19,15.00,30.00,WinterDesignDay
7,-20.0
8,-20.000009055076564
9,-20.00000241249107
10,0.0
11,0.0
12,258.2783349952772
13,-22.860167113006327
2,1,12,21, 0,19,30.00,45.00,WinterDesignDay
7,-20.0
8,-20.000009055076564
9,-20.00000241249107
10,0.0
11,0.0
12,260.5460333089943
13,-25.608770213163837
2,1,12,21, 0,19,45.00,60.00,WinterDesignDay
7,-20.0
8,-20.000009055076564
9,-20.00000241249107
10,0.0
11,0.0
12,262.83922883242263
13,-28.375632061887725
2,1,12,21, 0,19, 0.00,60.00,WinterDesignDay
272,15085999.18011893
321,0.0
370,23129181.997127123
371,0.0
372,13017603.970938703
373,0.0
2,1,12,21, 0,20, 0.00,15.00,WinterDesignDay
7,-20.0
8,-20.000009055076564
9,-20.00000241249107
10,0.0
11,0.0
12,265.1711959142465
13,-31.156535515918414
2,1,12,21, 0,20,15.00,30.00,WinterDesignDay
7,-20.0
8,-20.000009055076564
9,-20.00000241249107
10,0.0
11,0.0
12,267.55699769935086
13,-33.94709660357517
2,1,12,21, 0,20,30.00,45.00,WinterDesignDay
7,-20.0
8,-20.000009055076564
9,-20.00000241249107
10,0.0
11,0.0
12,270.0139730137425
13,-36.74265456730844
2,1,12,21, 0,20,45.00,60.00,WinterDesignDay
7,-20.0
8,-20.000009055076564
9,-20.00000241249107
10,0.0
11,0.0
12,272.56236029002997
13,-39.53813413766856
2,1,12,21, 0,20, 0.00,60.00,WinterDesignDay
272,15085999.180119645
321,0.0
370,23129181.997127242
371,0.0
372,13017603.970939359
373,0.0
2,1,12,21, 0,21, 0.00,15.00,WinterDesignDay
7,-20.0
8,-20.000009055076564
9,-20.00000241249107
10,0.0
11,0.0
12,275.22610008572417
13,-42.327869224189094
2,1,12,21, 0,21,15.00,30.00,WinterDesignDay
7,-20.0
8,-20.000009055076564
9,-20.00000241249107
10,0.0
11,0.0
12,278.0338696528408
13,-45.10537279956675
2,1,12,21, 0,21,30.00,45.00,WinterDesignDay
7,-20.0
8,-20.000009055076564
9,-20.00000241249107
10,0.0
11,0.0
12,281.0204156443975
13,-47.86303149857103
2,1,12,21, 0,21,45.00,60.00,WinterDesignDay
7,-20.0
8,-20.000009055076564
9,-20.00000241249107
10,0.0
11,0.0
12,284.22826037200673
13,-50.59169469465521
2,1,12,21, 0,21, 0.00,60.00,WinterDesignDay
272,15085999.180120181
321,0.0
370,23129181.99712737
371,0.0
372,13017603.970940035
373,0.0
2,1,12,21, 0,22, 0.00,15.00,WinterDesignDay
7,-20.0
8,-20.000009055076564
9,-20.00000241249107
10,0.0
11,0.0
12,287.70985252655987
13,-53.28011593415736
2,1,12,21, 0,22,15.00,30.00,WinterDesignDay
7,-20.0
8,-20.000009055076564
9,-20.00000241249107
10,0.0
11,0.0
12,291.5301899587738
13,-55.91418956608966
2,1,12,21, 0,22,30.00,45.00,WinterDesignDay
7,-20.0
8,-20.000009055076564
9,-20.00000241249107
10,0.0
11,0.0
12,295.76980451812307
13,-58.47590932169207
2,1,12,21, 0,22,45.00,60.00,WinterDesignDay
7,-20.0
8,-20.000009055076564
9,-20.00000241249107
10,0.0
11,0.0
12,300.5276518011432
13,-60.941966710605364
2,1,12,21, 0,22, 0.00,60.00,WinterDesignDay
272,15085999.180120584
321,0.0
370,23129181.997127425
371,0.0
372,13017603.97094069
373,0.0
2,1,12,21, 0,23, 0.00,15.00,WinterDesignDay
7,-20.0
8,-20.000009055076564
9,-20.00000241249107
10,0.0
11,0.0
12,305.92267471102383
13,-63.281928859470625
2,1,12,21, 0,23,15.00,30.00,WinterDesignDay
7,-20.0
8,-20.000009055076564
9,-20.00000241249107
10,0.0
11,0.0
12,312.0912723725548
13,-65.45604433780491
2,1,12,21, 0,23,30.00,45.00,WinterDesignDay
7,-20.0
8,-20.000009055076564
9,-20.00000241249107
10,0.0
11,0.0
12,319.17533267736934
13,-67.41303579451612
2,1,12,21, 0,23,45.00,60.00,WinterDesignDay
7,-20.0
8,-20.000009055076564
9,-20.00000241249107
10,0.0
11,0.0
12,327.29256098976344
13,-69.08891686535516
2,1,12,21, 0,23, 0.00,60.00,WinterDesignDay
272,15085999.18012089
321,0.0
370,23129181.997127444
371,0.0
372,13017603.970941132
373,0.0
2,1,12,21, 0,24, 0.00,15.00,WinterDesignDay
7,-20.0
8,-20.000009055076564
9,-20.00000241249107
10,0.0
11,0.0
12,336.4815017264745
13,-70.4089640138057
2,1,12,21, 0,24,15.00,30.00,WinterDesignDay
7,-20.0
8,-20.000009055076564
9,-20.00000241249107
10,0.0
11,0.0
12,346.6272226540357
13,-71.29582222198239
2,1,12,21, 0,24,30.00,45.00,WinterDesignDay
7,-20.0
8,-20.000009055076564
9,-20.00000241249107
10,0.0
11,0.0
12,357.4064763820255
13,-71.68525357059538
2,1,12,21, 0,24,45.00,60.00,WinterDesignDay
7,-20.0
8,-20.000009055076564
9,-20.00000241249107
10,0.0
11,0.0
12,351.6826610694487
13,-71.54523825119466
2,1,12,21, 0,24, 0.00,60.00,WinterDesignDay
272,15085999.180121161
321,0.0
370,23129181.99712751
371,0.0
372,13017603.970941447
373,0.0
1,DENVER_STAPLETON ANN CLG .4% CONDNS DB=>MWB,  41.78, -87.75,  -6.00, 186.00
2,1, 7,21, 0, 1, 0.00,15.00,SummerDesignDay
7,21.408
8,0.5498630508317337
9,10.927400161961204
10,0.0
11,0.0
12,4.6866098110297765
13,-27.468477450892465
2,1, 7,21, 0, 1,15.00,30.00,SummerDesignDay
7,21.18
8,0.5488251518901933
9,10.830225032901437
10,0.0
11,0.0
12,8.619844509800705
13,-27.14442273046498
2,1, 7,21, 0, 1,30.00,45.00,SummerDesignDay
7,20.952
8,0.5477900934921142
9,10.732733154459542
10,0.0
11,0.0
12,12.512978408218785
13,-26.631535596033928
2,1, 7,21, 0, 1,45.00,60.00,SummerDesignDay
7,20.724000000000004
8,0.5467548568044617
9,10.634919057162994
10,0.0
11,0.0
12,16.34964860927522
13,-25.934495185625817
2,1, 7,21, 0, 1, 0.00,60.00,SummerDesignDay
272,0.0
321,834353.4887213295
370,0.0
371,1960081.3591589811
372,0.0
373,1198874.4769870392
2,1, 7,21, 0, 2, 0.00,15.00,SummerDesignDay
7,20.572000000000003
8,0.5460524984666457
9,10.569521767489526
10,0.0
11,0.0
12,20.115521981568005
13,-25.05942805714766
2,1, 7,21, 0, 2,15.00,30.00,SummerDesignDay
7,20.42
8,0.5453725165116237
9,10.503990488059237
10,0.0
11,0.0
12,23.798656415804945
13,-24.01366606156379
2,1, 7,21, 0, 2,30.00,45.00,SummerDesignDay
7,20.268
8,0.5446710834130903
9,10.438303892622518
10,0.0
11,0.0
12,27.389693199377312
13,-22.80548055953357
2,1, 7,21, 0, 2,45.00,60.00,SummerDesignDay
7,20.116
8,0.5439929827348187
9,10.372486436130888
10,0.0
11,0.0
12,30.881891108105528
13,-21.443813202537946
2,1, 7,21, 0, 2, 0.00,60.00,SummerDesignDay
272,0.0
321,352737.3880598084
370,0.0
371,1231732.7883836306
372,0.0
373,738323.8828221236
2,1, 7,21, 0, 3, 0.00,15.00,SummerDesignDay
7,20.002000000000002
8,0.5434793806394832
9,10.323025164635022
10,0.0
11,0.0
12,34.271027739797866
13,-19.93802037309611
2,1, 7,21, 0, 3,15.00,30.00,SummerDesignDay
7,19.888
8,0.5429445525896885
9,10.273467096750466
10,0.0
11,0.0
12,37.555201869125476
13,-18.29764390851026
2,1, 7,21, 0, 3,30.00,45.00,SummerDesignDay
7,19.774000000000004
8,0.5424311096085709
9,10.223837233774592
10,0.0
11,0.0
12,40.734572530274455
13,-16.532215900096315
2,1, 7,21, 0, 3,45.00,60.00,SummerDesignDay
7,19.660000000000004
8,0.5419193074606731
9,10.17412887992061
10,0.0
11,0.0
12,43.811067620593306
13,-14.65110093649937
2,1, 7,21, 0, 3, 0.00,60.00,SummerDesignDay
272,0.0
321,29444.496475511005
370,0.0
371,597385.4600135763
372,0.0
373,357333.733338003
2,1, 7,21, 0, 4, 0.00,15.00,SummerDesignDay
7,19.546000000000003
8,0.5414069932559005
9,10.124337888647176
10,0.0
11,0.0
12,46.788088985068796
13,-12.663375613101563
2,1, 7,21, 0, 4,15.00,30.00,SummerDesignDay
7,19.432000000000002
8,0.5408959072368216
9,10.074463788239076
10,0.0
11,0.0
12,49.67023397330618
13,-10.577742635142316
2,1, 7,21, 0, 4,30.00,45.00,SummerDesignDay
7,19.318000000000005
8,0.5403845834362353
9,10.024506795144559
10,0.0
11,0.0
12,52.46304669415291
13,-8.402475356604722
2,1, 7,21, 0, 4,45.00,60.00,SummerDesignDay
7,19.204
8,0.5398737515418868
9,9.97446609916896
10,0.0
11,0.0
12,55.17280643444737
13,-6.145387949224708
2,1, 7,21, 0, 4, 0.00,60.00,SummerDesignDay
272,0.0
321,0.0
370,0.0
371,90457.99019839938
372,0.0
373,58527.958213629594
2,1, 7,21, 0, 5, 0.00,15.00,SummerDesignDay
7,19.128
8,0.5395272430728892
9,9.941055919299883
10,0.0
11,0.0
12,57.80635630422462
13,-3.8138263670545
2,1, 7,21, 0, 5,15.00,30.00,SummerDesignDay
7,19.052
8,0.5391805273197053
9,9.907604365101237
10,0.0
11,0.0
12,60.37097214362474
13,-1.4146756493563732
2,1, 7,21, 0, 5,30.00,45.00,SummerDesignDay
7,18.976000000000003
8,0.538854508958293
9,9.874134345176913
10,0.0016454945218189745
11,0.012054766783879994
12,62.874269913696345
13,1.0456202880812007
2,1, 7,21, 0, 5,45.00,60.00,SummerDesignDay
7,18.900000000000002
8,0.5385078332299216
9,9.840612407160629
10,5.185885561737067
11,37.99140026642292
12,65.3241489553745
13,3.561029515646879
2,1, 7,21, 0, 5, 0.00,60.00,SummerDesignDay
272,0.0
321,0.0
370,0.0
371,0.0
372,0.0
373,0.0
2,1, 7,21, 0, 6, 0.00,15.00,SummerDesignDay
7,18.976000000000003
8,0.538854508958293
9,9.874134345176913
10,21.045607802887016
11,154.17851018328602
12,67.7287683958497
13,6.1258960264937325
2,1, 7,21, 0, 6,15.00,30.00,SummerDesignDay
7,19.052
8,0.5391805273197053
9,9.907604365101237
10,37.58597878885385
11,275.35200065123
12,70.09655440341109
13,8.734898476877154
2,1, 7,21, 0, 6,30.00,45.00,SummerDesignDay
7,19.128
8,0.5395272430728892
9,9.941055919299883
10,51.55540074944507
11,377.69091555347273
12,72.43623678757763
13,11.383004821973554
2,1, 7,21, 0, 6,45.00,60.00,SummerDesignDay
7,19.204
8,0.5398737515418868
9,9.97446609916896
10,62.85466474508465
11,460.46845780038154
12,74.75691451318256
13,14.065423351495388
2,1, 7,21, 0, 6, 0.00,60.00,SummerDesignDay
272,0.0
321,0.0
370,0.0
371,0.0
372,0.0
373,0.0
2,1, 7,21, 0, 7, 0.00,15.00,SummerDesignDay
7,19.470000000000002
8,0.5410589037944687
9,10.091094105254554
10,71.96744196965786
11,527.2279654979518
12,77.06815099826268
13,16.777550077167245
2,1, 7,21, 0, 7,15.00,30.00,SummerDesignDay
7,19.736
8,0.5422680972636041
9,10.207284482834405
10,79.37727048528359
11,581.5118014390589
12,79.38010159364899
13,19.514911880754926
2,1, 7,21, 0, 7,30.00,45.00,SummerDesignDay
7,20.002000000000002
8,0.5434793806394832
9,10.323025164635022
10,85.46831286942535
11,626.134311230456
12,81.70367743222131
13,22.273104261290737
2,1, 7,21, 0, 7,45.00,60.00,SummerDesignDay
7,20.268
8,0.5446710834130903
9,10.438303892622518
10,90.52979054513635
11,663.2143088563755
12,84.05075195427459
13,25.047721877990423
2,1, 7,21, 0, 7, 0.00,60.00,SummerDesignDay
272,0.0
321,9322.891639111911
370,0.0
371,462545.13784440106
372,0.0
373,46864.3553017011
2,1, 7,21, 0, 8, 0.00,15.00,SummerDesignDay
7,20.914
8,0.5476027970875117
9,10.71644304484037
10,94.77737650023896
11,694.3317981000614
12,86.43441895209956
13,27.834279313276305
2,1, 7,21, 0, 8,15.00,30.00,SummerDesignDay
7,21.560000000000002
8,0.5505703591162587
9,10.992011886581487
10,98.37274350448722
11,720.6711812848557
12,88.86931403084806
13,30.62811850364412
2,1, 7,21, 0, 8,30.00,45.00,SummerDesignDay
7,22.206000000000003
8,0.5535299242911814
9,11.26501968785565
10,101.43836001773317
11,743.129652963716
12,91.37201503286316
13,33.42429800720463
2,1, 7,21, 0, 8,45.00,60.00,SummerDesignDay
7,22.852000000000004
8,0.5565039465744536
9,11.535507801820017
10,104.06811691577562
11,762.3950504985304
12,93.96154121253464
13,36.21745756769435
2,1, 7,21, 0, 8, 0.00,60.00,SummerDesignDay
272,0.0
321,512320.3063083956
370,0.0
371,1039012.1313441689
372,0.0
373,120260.81434774149
2,1, 7,21, 0, 9, 0.00,15.00,SummerDesignDay
7,23.574000000000005
8,0.5598490800584013
9,11.834889603872
10,106.3348623674428
11,779.0010539922781
12,96.6599755480386
13,39.00164913095758
2,1, 7,21, 0, 9,15.00,30.00,SummerDesignDay
7,24.296
8,0.5632126845991183
9,12.131216550970224
10,108.29575586534526
11,793.3664095080838
12,99.49323879200979
13,41.77012236990403
2,1, 7,21, 0, 9,30.00,45.00,SummerDesignDay
7,25.018
8,0.5665913042863647
9,12.424538489931887
10,109.99610443120444
11,805.8230328155131
12,102.49204585398242
13,44.5150486596657
2,1, 7,21, 0, 9,45.00,60.00,SummerDesignDay
7,25.740000000000002
8,0.5699857228986337
9,12.714893473901757
10,111.47214107415151
11,816.6363641631732
12,105.69307077584648
13,47.22716215478709
2,1, 7,21, 0, 9, 0.00,60.00,SummerDesignDay
272,0.0
321,1143147.9744542236
370,0.0
371,1745211.787306353
372,0.0
373,196639.5717944953
2,1, 7,21, 0,10, 0.00,15.00,SummerDesignDay
7,26.386000000000003
8,0.5730304193572995
9,12.972212621928785
10,112.75306033654202
11,826.0202805313833
12,109.1403273350773
13,49.895290250771986
2,1, 7,21, 0,10,15.00,30.00,SummerDesignDay
7,27.032000000000004
8,0.5761082388713078
9,13.227237363243091
10,113.86252637012035
11,834.1481436826012
12,112.88672108699024
13,52.50573910261728
2,1, 7,21, 0,10,30.00,45.00,SummerDesignDay
7,27.678
8,0.5791780487232868
9,13.479976034035435
10,114.81980190026545
11,841.1610708669821
12,116.99561299921102
13,55.04149569531457
2,1, 7,21, 0,10,45.00,60.00,SummerDesignDay
7,28.324
8,0.5822579706472295
9,13.730473363831193
10,115.6406011704039
11,847.1741834277947
12,121.54199746786968
13,57.48121298098625
2,1, 7,21, 0,10, 0.00,60.00,SummerDesignDay
272,0.0
321,1802902.9513230086
370,0.0
371,2490136.9175679404
372,0.0
373,288601.428065734
2,1, 7,21, 0,11, 0.00,15.00,SummerDesignDay
7,28.894000000000002
8,0.5849999816529038
9,13.949672935790723
10,116.33773922546835
11,852.2813634022864
12,126.61244947697392
13,59.797973881811146
2,1, 7,21, 0,11,15.00,30.00,SummerDesignDay
7,29.464000000000002
8,0.5877283910468869
9,14.167159485270524
10,116.92162882494787
11,856.5588938686158
12,132.30223530278332
13,61.95791323639198
2,1, 7,21, 0,11,30.00,45.00,SummerDesignDay
7,30.034000000000002
8,0.590487971872235
9,14.382975665651342
10,117.40066166375968
11,860.0682517407482
12,138.7069068906783
13,63.91896320687481
2,1, 7,21, 0,11,45.00,60.00,SummerDesignDay
7,30.604000000000003
8,0.5932341172814215
9,14.59711941580776
10,117.78150030934961
11,862.8582464772851
12,145.9047533386555
13,65.63033207498415
2,1, 7,21, 0,11, 0.00,60.00,SummerDesignDay
272,0.0
321,2506148.4408124853
370,0.0
371,3327792.333791608
372,0.0
373,504946.4572268415
2,1, 7,21, 0,12, 0.00,15.00,SummerDesignDay
7,30.984
8,0.5950842022505605
9,14.73897869720511
10,118.06929993606255
11,864.9666444904716
12,153.927207424808
13,67.03381268023796
2,1, 7,21, 0,12,15.00,30.00,SummerDesignDay
7,31.364
8,0.5969361184066273
9,14.880110130738844
10,118.2678736161281
11,866.4213800552918
12,162.71970552096937
13,68.06836642371732
2,1, 7,21, 0,12,30.00,45.00,SummerDesignDay
7,31.744
8,0.5987709226265212
9,15.020516964793215
10,118.37981097495458
11,867.2414245690621
12,172.10762331316513
13,68.6789027388469
2,1, 7,21, 0,12,45.00,60.00,SummerDesignDay
7,32.124
8,0.6006305174983039
9,15.16022020371623
10,118.40655699722882
11,867.437363878879
12,181.79425116811322
13,68.827957405522
2,1, 7,21, 0,12, 0.00,60.00,SummerDesignDay
272,0.0
321,3287976.6804985716
370,0.0
371,4308414.000600763
372,0.0
373,908966.8800466768
2,1, 7,21, 0,13, 0.00,15.00,SummerDesignDay
7,32.428000000000004
8,0.6020960567520044
9,15.271464042229796
10,118.34845536713544
11,867.0117157887445